                         Program Version 6.0.0  -   RELEASE  -
|  1> ! r2scan-3c def2/J RI DEFGRID2 scfconv6 printgap
|  2> %output
|  3>     printlevel normal
|  4> end
|  5> * xyz 0 1
|  6> C -2.4152752005 -0.0792903961 7.8819e-06
|  7> C -1.8415237909 -1.3402231586 1.73474e-05
|  8> C -0.4635201729 -1.4689848999 0.0001008299
|  9> C 0.3267854683 -0.3351059892 1.44322e-05
| 10> C -0.2322116869 0.9426275442 4.26231e-05
| 11> C -1.6213762942 1.0506558379 -8.9649e-06
| 12> O 0.5081540092 2.0703408157 2.69809e-05
| 13> Cl 2.0730491099 -0.4962033769 -3.14254e-05
| 14> H -3.4882638492 0.0262390746 -0.0002683867
| 15> H -2.4592782342 -2.223181533 -0.0004483077
| 16> H -0.0001806088 -2.4426502291 -0.0001576641
| 17> H -2.0487527425 2.0400670469 -0.0005280336
| 18> H 1.4551049744 1.8501836388 4.2731e-06
| 19> *
| 20>
| 21>                          ****END OF INPUT****

CARTESIAN COORDINATES (ANGSTROEM)
---------------------------------
  C     -2.415275   -0.079290    0.000008
  C     -1.841524   -1.340223    0.000017
  C     -0.463520   -1.468985    0.000101
  C      0.326785   -0.335106    0.000014
  C     -0.232212    0.942628    0.000043
  C     -1.621376    1.050656   -0.000009
  O      0.508154    2.070341    0.000027
  Cl     2.073049   -0.496203   -0.000031
  H     -3.488264    0.026239   -0.000268
  H     -2.459278   -2.223182   -0.000448
  H     -0.000181   -2.442650   -0.000158
  H     -2.048753    2.040067   -0.000528
  H      1.455105    1.850184    0.000004

 Total Charge           Charge          ....    0
 Multiplicity           Mult            ....    1
 Number of Electrons    NEL             ....   66
 Basis Dimension        Dim             ....  190

ORBITAL ENERGIES
----------------

  NO   OCC          E(Eh)            E(eV)
   0   2.0000    -101.235315     -2754.7530
   1   2.0000     -18.995716      -516.8997
   2   2.0000     -10.114855      -275.2392
   3   2.0000     -10.103523      -274.9308
   4   2.0000     -10.053130      -273.5596
   5   2.0000     -10.046560      -273.3808
   6   2.0000     -10.044411      -273.3223
   7   2.0000     -10.042015      -273.2571
   8   2.0000      -9.390755      -255.5354
   9   2.0000      -7.136790      -194.2019
  10   2.0000      -7.127032      -193.9364
  11   2.0000      -7.126837      -193.9311
  12   2.0000      -1.043929       -28.4068
  13   2.0000      -0.863138       -23.4872
  14   2.0000      -0.814079       -22.1522
  15   2.0000      -0.728784       -19.8312
  16   2.0000      -0.708864       -19.2892
  17   2.0000      -0.598954       -16.2984
  18   2.0000      -0.592363       -16.1190
  19   2.0000      -0.528837       -14.3904
  20   2.0000      -0.483401       -13.1540
  21   2.0000      -0.454111       -12.3570
  22   2.0000      -0.425561       -11.5801
  23   2.0000      -0.409908       -11.1542
  24   2.0000      -0.406580       -11.0636
  25   2.0000      -0.372047       -10.1239
  26   2.0000      -0.353697        -9.6246
  27   2.0000      -0.339077        -9.2268
  28   2.0000      -0.326820        -8.8932
  29   2.0000      -0.317028        -8.6268
  30   2.0000      -0.304549        -8.2872
  31   2.0000      -0.241465        -6.5706
  32   2.0000      -0.215960        -5.8766
  33   0.0000      -0.045934        -1.2499
  34   0.0000      -0.029030        -0.7899
  35   0.0000      -0.005146        -0.1400
  36   0.0000       0.062672         1.7054
  37   0.0000       0.102004         2.7757

MULLIKEN ATOMIC CHARGES
-----------------------
   0 C :   -0.117620
   1 C :   -0.164826
   2 C :   -0.165562
   3 C :    0.011604
   4 C :    0.343621
   5 C :   -0.277156
   6 O :   -0.408551
   7 Cl:   -0.173599
   8 H :    0.151239
   9 H :    0.151421
  10 H :    0.161507
  11 H :    0.162208
  12 H :    0.325714
Sum of atomic charges:   -0.0000000

LOEWDIN ATOMIC CHARGES
----------------------
   0 C :   -0.152652
   1 C :   -0.180006
   2 C :   -0.163076
   3 C :   -0.160781
   4 C :    0.170777
   5 C :   -0.134799
   6 O :   -0.491793
   7 Cl:    0.122994
   8 H :    0.170433
   9 H :    0.170221
  10 H :    0.178724
  11 H :    0.183276
  12 H :    0.286683

  Mayer bond orders larger than 0.100000
B(  0-C ,  1-C ) :   1.4072 B(  0-C ,  5-C ) :   1.4016 B(  0-C ,  8-H ) :   0.9451
B(  1-C ,  2-C ) :   1.4081 B(  1-C ,  9-H ) :   0.9464 B(  2-C ,  3-C ) :   1.3230
B(  2-C , 10-H ) :   0.9385 B(  3-C ,  4-C ) :   1.3331 B(  3-C ,  7-Cl) :   0.9383
B(  4-C ,  5-C ) :   1.3806 B(  4-C ,  6-O ) :   1.0077 B(  5-C , 11-H ) :   0.9450
B(  6-O , 12-H ) :   0.8472

Dispersion correction           -0.004543823
FINAL SINGLE POINT ENERGY      -766.983678574612

DIPOLE MOMENT
-------------

Method             : SCF
Type of density    : Electron Density
Multiplicity       :   1
Irrep              :   0
Energy             :  -766.9849511463696672 Eh
Relativity type    :
Basis              : AO
                                X                 Y                 Z
Electronic contribution:      8.684339748      -0.211064778       0.000837903
Nuclear contribution   :     -8.911850906      -0.006355833      -0.001269103
                        -----------------------------------------
Total Dipole Moment    :     -0.227511158      -0.217420611      -0.000431200
                        -----------------------------------------
Magnitude (a.u.)       :      0.314695464
Magnitude (Debye)      :      0.799892301

Rotational constants in cm-1:             0.099869             0.051379             0.033926
Rotational constants in MHz :          2994.010855          1540.305242          1017.064212

                             ****ORCA TERMINATED NORMALLY****
TOTAL RUN TIME: 0 days 0 hours 0 minutes 24 seconds 152 msec
