                         Program Version 6.0.0  -   RELEASE  -
|  1> ! r2scan-3c def2/J RI DEFGRID2 scfconv6 printgap
|  2> %output
|  3>     printlevel normal
|  4> end
|  5> %cpcm
|  6>     smd true
|  7>     smdsolvent "water"
|  8> end
|  9> * xyz 0 1
| 10> C -2.4152752005 -0.0792903961 7.8819e-06
| 11> C -1.8415237909 -1.3402231586 1.73474e-05
| 12> C -0.4635201729 -1.4689848999 0.0001008299
| 13> C 0.3267854683 -0.3351059892 1.44322e-05
| 14> C -0.2322116869 0.9426275442 4.26231e-05
| 15> C -1.6213762942 1.0506558379 -8.9649e-06
| 16> O 0.5081540092 2.0703408157 2.69809e-05
| 17> Cl 2.0730491099 -0.4962033769 -3.14254e-05
| 18> H -3.4882638492 0.0262390746 -0.0002683867
| 19> H -2.4592782342 -2.223181533 -0.0004483077
| 20> H -0.0001806088 -2.4426502291 -0.0001576641
| 21> H -2.0487527425 2.0400670469 -0.0005280336
| 22> H 1.4551049744 1.8501836388 4.2731e-06
| 23> *
| 24>
| 25>                          ****END OF INPUT****

CARTESIAN COORDINATES (ANGSTROEM)
---------------------------------
  C     -2.415275   -0.079290    0.000008
  C     -1.841524   -1.340223    0.000017
  C     -0.463520   -1.468985    0.000101
  C      0.326785   -0.335106    0.000014
  C     -0.232212    0.942628    0.000043
  C     -1.621376    1.050656   -0.000009
  O      0.508154    2.070341    0.000027
  Cl     2.073049   -0.496203   -0.000031
  H     -3.488264    0.026239   -0.000268
  H     -2.459278   -2.223182   -0.000448
  H     -0.000181   -2.442650   -0.000158
  H     -2.048753    2.040067   -0.000528
  H      1.455105    1.850184    0.000004

 Total Charge           Charge          ....    0
 Multiplicity           Mult            ....    1
 Number of Electrons    NEL             ....   66
 Basis Dimension        Dim             ....  190

ORBITAL ENERGIES
----------------

  NO   OCC          E(Eh)            E(eV)
   0   2.0000    -101.233088     -2754.6924
   1   2.0000     -18.994522      -516.8672
   2   2.0000     -10.112973      -275.1880
   3   2.0000     -10.101328      -274.8711
   4   2.0000     -10.047943      -273.4184
   5   2.0000     -10.040840      -273.2251
   6   2.0000     -10.040028      -273.2031
   7   2.0000     -10.036118      -273.0967
   8   2.0000      -9.388639      -255.4779
   9   2.0000      -7.134652      -194.1437
  10   2.0000      -7.124831      -193.8765
  11   2.0000      -7.124802      -193.8757
  12   2.0000      -1.042536       -28.3689
  13   2.0000      -0.861003       -23.4291
  14   2.0000      -0.811251       -22.0753
  15   2.0000      -0.724851       -19.7242
  16   2.0000      -0.705296       -19.1921
  17   2.0000      -0.594987       -16.1904
  18   2.0000      -0.587559       -15.9883
  19   2.0000      -0.523815       -14.2537
  20   2.0000      -0.477949       -13.0056
  21   2.0000      -0.449889       -12.2421
  22   2.0000      -0.419611       -11.4182
  23   2.0000      -0.406700       -11.0669
  24   2.0000      -0.403834       -10.9889
  25   2.0000      -0.370975       -10.0948
  26   2.0000      -0.347142        -9.4462
  27   2.0000      -0.339219        -9.2306
  28   2.0000      -0.321953        -8.7608
  29   2.0000      -0.315887        -8.5957
  30   2.0000      -0.301383        -8.2011
  31   2.0000      -0.239974        -6.5300
  32   2.0000      -0.215288        -5.8583
  33   0.0000      -0.043793        -1.1917
  34   0.0000      -0.027314        -0.7433
  35   0.0000      -0.002296        -0.0625
  36   0.0000       0.072784         1.9806
  37   0.0000       0.111429         3.0321

MULLIKEN ATOMIC CHARGES
-----------------------
   0 C :   -0.154238
   1 C :   -0.207682
   2 C :   -0.182036
   3 C :   -0.001427
   4 C :    0.346534
   5 C :   -0.305395
   6 O :   -0.445303
   7 Cl:   -0.176673
   8 H :    0.186926
   9 H :    0.186968
  10 H :    0.195638
  11 H :    0.193139
  12 H :    0.363547
Sum of atomic charges:    0.0000000

LOEWDIN ATOMIC CHARGES
----------------------
   0 C :   -0.158037
   1 C :   -0.185960
   2 C :   -0.166894
   3 C :   -0.167410
   4 C :    0.162584
   5 C :   -0.144011
   6 O :   -0.506411
   7 Cl:    0.118858
   8 H :    0.182275
   9 H :    0.181933
  10 H :    0.190352
  11 H :    0.193021
  12 H :    0.299701

  Mayer bond orders larger than 0.100000
B(  0-C ,  1-C ) :   1.3743 B(  0-C ,  5-C ) :   1.3823 B(  0-C ,  8-H ) :   0.9501
B(  1-C ,  2-C ) :   1.3899 B(  1-C ,  9-H ) :   0.9529 B(  2-C ,  3-C ) :   1.2894
B(  2-C , 10-H ) :   0.9409 B(  3-C ,  4-C ) :   1.3111 B(  3-C ,  7-Cl) :   0.9557
B(  4-C ,  5-C ) :   1.3345 B(  4-C ,  6-O ) :   0.9994 B(  5-C , 11-H ) :   0.9533
B(  6-O , 12-H ) :   0.8347

Dispersion correction           -0.004543823
FINAL SINGLE POINT ENERGY      -766.988272878440

DIPOLE MOMENT
-------------

Method             : SCF
Type of density    : Electron Density
Multiplicity       :   1
Irrep              :   0
Energy             :  -766.9895454501976246 Eh
Relativity type    :
Basis              : AO
                                X                 Y                 Z
Electronic contribution:      8.614884716      -0.317169620       0.000676628
Nuclear contribution   :     -8.911850906      -0.006355833      -0.001269103
                        -----------------------------------------
Total Dipole Moment    :     -0.296966190      -0.323525453      -0.000592474
                        -----------------------------------------
Magnitude (a.u.)       :      0.439155995
Magnitude (Debye)      :      1.116245829

Rotational constants in cm-1:             0.099869             0.051379             0.033926
Rotational constants in MHz :          2994.010855          1540.305242          1017.064212

                             ****ORCA TERMINATED NORMALLY****
TOTAL RUN TIME: 0 days 0 hours 0 minutes 28 seconds 135 msec
