                         Program Version 6.0.0  -   RELEASE  -
|  1> ! wb97x-v def2-tzvp def2/J RIJCOSX DEFGRID2 scfconv7 GCP(DFT/TZ) printgap
|  2> %output
|  3>     printlevel normal
|  4> end
|  5> * xyz 0 1
|  6> C -2.4183384209203367 -0.10039817032132362 1.8401031028544143e-05
|  7> C -1.8320974839184456 -1.36363177793407 3.7322490359767193e-06
|  8> C -0.4451662671632379 -1.4801179668781477 -3.8115604335284092e-06
|  9> C 0.34139235932224354 -0.33580250005435586 -5.69604910203175e-07
| 10> C -0.23500605148657064 0.9383901278720368 1.0621561949955658e-05
| 11> C -1.6272643959122133 1.0418926803342057 2.329754952153912e-05
| 12> O 0.5828451444384287 2.0331754631175167 3.246599249144431e-06
| 13> Cl 2.092390617010883 -0.485262193399069 -2.9443315965439182e-05
| 14> H -3.4984182754630626 0.0016083302895882128 2.8099435439162005e-05
| 15> H -2.4447095223580204 -2.258286260962124 -6.83984619034069e-06
| 16> H 0.028572920454596834 -2.455569253932996 -1.7722040177587295e-05
| 17> H -2.0757342611148535 2.0315871937107355 3.640824351906088e-05
| 18> H 0.03337004601980737 2.8304873930954533 1.9140361601995105e-05
| 19> *
| 20>
| 21>                          ****END OF INPUT****

CARTESIAN COORDINATES (ANGSTROEM)
---------------------------------
  C     -2.418338   -0.100398    0.000018
  C     -1.832097   -1.363632    0.000004
  C     -0.445166   -1.480118   -0.000004
  C      0.341392   -0.335803   -0.000001
  C     -0.235006    0.938390    0.000011
  C     -1.627264    1.041893    0.000023
  O      0.582845    2.033175    0.000003
  Cl     2.092391   -0.485262   -0.000029
  H     -3.498418    0.001608    0.000028
  H     -2.444710   -2.258286   -0.000007
  H      0.028573   -2.455569   -0.000018
  H     -2.075734    2.031587    0.000036
  H      0.033370    2.830487    0.000019

 Total Charge           Charge          ....    0
 Multiplicity           Mult            ....    1
 Number of Electrons    NEL             ....   66
 Basis Dimension        Dim             ....  284

ORBITAL ENERGIES
----------------

  NO   OCC          E(Eh)            E(eV)
   0   2.0000    -107.139240     -2915.4069
   1   2.0000     -21.717020      -590.9502
   2   2.0000     -12.131913      -330.1261
   3   2.0000     -12.114202      -329.6442
   4   2.0000     -12.068862      -328.4104
   5   2.0000     -12.068056      -328.3885
   6   2.0000     -12.065955      -328.3313
   7   2.0000     -12.059003      -328.1422
   8   2.0000     -11.292134      -307.2746
   9   2.0000      -9.083773      -247.1820
  10   2.0000      -9.081043      -247.1077
  11   2.0000      -9.080913      -247.1042
  12   2.0000      -1.733468       -47.1701
  13   2.0000      -1.430523       -38.9265
  14   2.0000      -1.379881       -37.5485
  15   2.0000      -1.296022       -35.2666
  16   2.0000      -1.280489       -34.8439
  17   2.0000      -1.173458       -31.9314
  18   2.0000      -1.126490       -30.6533
  19   2.0000      -1.080478       -29.4013
  20   2.0000      -1.021744       -27.8031
  21   2.0000      -0.968708       -26.3599
  22   2.0000      -0.962481       -26.1904
  23   2.0000      -0.957089       -26.0437
  24   2.0000      -0.920725       -25.0542
  25   2.0000      -0.901905       -24.5421
  26   2.0000      -0.852485       -23.1973
  27   2.0000      -0.835195       -22.7268
  28   2.0000      -0.820316       -22.3219
  29   2.0000      -0.785017       -21.3614
  30   2.0000      -0.769805       -20.9475
  31   2.0000      -0.658026       -17.9058
  32   2.0000      -0.650897       -17.7118
  33   0.0000      -0.268558        -7.3078
  34   0.0000      -0.265102        -7.2138
  35   0.0000      -0.257836        -7.0161
  36   0.0000      -0.142030        -3.8648
  37   0.0000      -0.088454        -2.4069

MULLIKEN ATOMIC CHARGES
-----------------------
   0 C :   -0.124122
   1 C :   -0.141725
   2 C :   -0.149321
   3 C :    0.055746
   4 C :    0.207423
   5 C :   -0.195416
   6 O :   -0.371383
   7 Cl:   -0.088405
   8 H :    0.124178
   9 H :    0.122154
  10 H :    0.133300
  11 H :    0.110673
  12 H :    0.316897
Sum of atomic charges:    0.0000000

LOEWDIN ATOMIC CHARGES
----------------------
   0 C :   -0.136546
   1 C :   -0.151313
   2 C :   -0.135894
   3 C :   -0.393200
   4 C :   -0.273963
   5 C :   -0.140747
   6 O :    0.083147
   7 Cl:    0.378851
   8 H :    0.144771
   9 H :    0.143449
  10 H :    0.148981
  11 H :    0.142195
  12 H :    0.190269

  Mayer bond orders larger than 0.100000
B(  0-C ,  1-C ) :   1.4400 B(  0-C ,  5-C ) :   1.4408 B(  0-C ,  8-H ) :   0.9633
B(  1-C ,  2-C ) :   1.4275 B(  1-C ,  9-H ) :   0.9710 B(  2-C ,  3-C ) :   1.4342
B(  2-C , 10-H ) :   0.9612 B(  3-C ,  4-C ) :   1.3203 B(  3-C ,  7-Cl) :   1.0513
B(  4-C ,  5-C ) :   1.3764 B(  4-C ,  6-O ) :   1.2189 B(  5-C , 11-H ) :   0.9551
B(  6-O , 12-H ) :   0.8840

FINAL SINGLE POINT ENERGY      -767.030279271372

DIPOLE MOMENT
-------------

Method             : SCF
Type of density    : Electron Density
Multiplicity       :   1
Irrep              :   0
Energy             :  -767.0370436423720548 Eh
Relativity type    :
Basis              : AO
                                X                 Y                 Z
Electronic contribution:      9.181815730      -0.431934820      -0.000088594
Nuclear contribution   :    -10.286243236       0.825475434       0.000103156
                        -----------------------------------------
Total Dipole Moment    :     -1.104427506       0.393540615       0.000014562
                        -----------------------------------------
Magnitude (a.u.)       :      1.172448008
Magnitude (Debye)      :      2.980126003

Rotational constants in cm-1:             0.098196             0.051058             0.033592
Rotational constants in MHz :          2943.827276          1530.685992          1007.053707

                             ****ORCA TERMINATED NORMALLY****
TOTAL RUN TIME: 0 days 0 hours 2 minutes 19 seconds 641 msec
