                         Program Version 6.0.0  -   RELEASE  -
|  1> ! wb97x-v def2-tzvp def2/J RIJCOSX DEFGRID2 scfconv7 GCP(DFT/TZ) printgap
|  2> %output
|  3>     printlevel normal
|  4> end
|  5> %cpcm
|  6>     smd true
|  7>     smdsolvent "water"
|  8> end
|  9> * xyz 0 1
| 10> C -2.4183384209203367 -0.10039817032132362 1.8401031028544143e-05
| 11> C -1.8320974839184456 -1.36363177793407 3.7322490359767193e-06
| 12> C -0.4451662671632379 -1.4801179668781477 -3.8115604335284092e-06
| 13> C 0.34139235932224354 -0.33580250005435586 -5.69604910203175e-07
| 14> C -0.23500605148657064 0.9383901278720368 1.0621561949955658e-05
| 15> C -1.6272643959122133 1.0418926803342057 2.329754952153912e-05
| 16> O 0.5828451444384287 2.0331754631175167 3.246599249144431e-06
| 17> Cl 2.092390617010883 -0.485262193399069 -2.9443315965439182e-05
| 18> H -3.4984182754630626 0.0016083302895882128 2.8099435439162005e-05
| 19> H -2.4447095223580204 -2.258286260962124 -6.83984619034069e-06
| 20> H 0.028572920454596834 -2.455569253932996 -1.7722040177587295e-05
| 21> H -2.0757342611148535 2.0315871937107355 3.640824351906088e-05
| 22> H 0.03337004601980737 2.8304873930954533 1.9140361601995105e-05
| 23> *
| 24>
| 25>                          ****END OF INPUT****

CARTESIAN COORDINATES (ANGSTROEM)
---------------------------------
  C     -2.418338   -0.100398    0.000018
  C     -1.832097   -1.363632    0.000004
  C     -0.445166   -1.480118   -0.000004
  C      0.341392   -0.335803   -0.000001
  C     -0.235006    0.938390    0.000011
  C     -1.627264    1.041893    0.000023
  O      0.582845    2.033175    0.000003
  Cl     2.092391   -0.485262   -0.000029
  H     -3.498418    0.001608    0.000028
  H     -2.444710   -2.258286   -0.000007
  H      0.028573   -2.455569   -0.000018
  H     -2.075734    2.031587    0.000036
  H      0.033370    2.830487    0.000019

 Total Charge           Charge          ....    0
 Multiplicity           Mult            ....    1
 Number of Electrons    NEL             ....   66
 Basis Dimension        Dim             ....  284

ORBITAL ENERGIES
----------------

  NO   OCC          E(Eh)            E(eV)
   0   2.0000    -107.147702     -2915.6372
   1   2.0000     -21.709748      -590.7523
   2   2.0000     -12.127349      -330.0019
   3   2.0000     -12.112662      -329.6023
   4   2.0000     -12.063555      -328.2660
   5   2.0000     -12.058565      -328.1302
   6   2.0000     -12.055686      -328.0519
   7   2.0000     -12.051242      -327.9310
   8   2.0000     -11.300717      -307.5081
   9   2.0000      -9.092323      -247.4147
  10   2.0000      -9.089682      -247.3428
  11   2.0000      -9.089572      -247.3398
  12   2.0000      -1.726430       -46.9785
  13   2.0000      -1.433902       -39.0185
  14   2.0000      -1.378449       -37.5095
  15   2.0000      -1.289783       -35.0968
  16   2.0000      -1.276491       -34.7351
  17   2.0000      -1.166514       -31.7425
  18   2.0000      -1.120760       -30.4974
  19   2.0000      -1.073883       -29.2219
  20   2.0000      -1.018194       -27.7065
  21   2.0000      -0.964575       -26.2474
  22   2.0000      -0.957882       -26.0653
  23   2.0000      -0.951710       -25.8974
  24   2.0000      -0.915656       -24.9163
  25   2.0000      -0.893061       -24.3014
  26   2.0000      -0.843798       -22.9609
  27   2.0000      -0.826611       -22.4932
  28   2.0000      -0.826000       -22.4766
  29   2.0000      -0.793124       -21.5820
  30   2.0000      -0.769146       -20.9295
  31   2.0000      -0.654068       -17.7981
  32   2.0000      -0.646835       -17.6013
  33   0.0000      -0.271589        -7.3903
  34   0.0000      -0.261697        -7.1211
  35   0.0000      -0.251841        -6.8529
  36   0.0000      -0.135377        -3.6838
  37   0.0000      -0.082842        -2.2542

MULLIKEN ATOMIC CHARGES
-----------------------
   0 C :   -0.143307
   1 C :   -0.194853
   2 C :   -0.184284
   3 C :    0.053730
   4 C :    0.223066
   5 C :   -0.246646
   6 O :   -0.452253
   7 Cl:   -0.117955
   8 H :    0.168646
   9 H :    0.165434
  10 H :    0.169712
  11 H :    0.173781
  12 H :    0.384928
Sum of atomic charges:    0.0000000

LOEWDIN ATOMIC CHARGES
----------------------
   0 C :   -0.138122
   1 C :   -0.157366
   2 C :   -0.143824
   3 C :   -0.407942
   4 C :   -0.279697
   5 C :   -0.129825
   6 O :    0.058333
   7 Cl:    0.354809
   8 H :    0.155467
   9 H :    0.153286
  10 H :    0.157543
  11 H :    0.160404
  12 H :    0.216933

  Mayer bond orders larger than 0.100000
B(  0-C ,  1-C ) :   1.4050 B(  0-C ,  5-C ) :   1.3994 B(  0-C ,  8-H ) :   0.9651
B(  1-C ,  2-C ) :   1.4227 B(  1-C ,  9-H ) :   0.9738 B(  2-C ,  3-C ) :   1.3998
B(  2-C , 10-H ) :   0.9645 B(  3-C ,  4-C ) :   1.3132 B(  3-C ,  7-Cl) :   1.0199
B(  4-C ,  5-C ) :   1.3773 B(  4-C ,  6-O ) :   1.1782 B(  5-C , 11-H ) :   0.9615
B(  6-O , 12-H ) :   0.8410

FINAL SINGLE POINT ENERGY      -767.040974806097

DIPOLE MOMENT
-------------

Method             : SCF
Type of density    : Electron Density
Multiplicity       :   1
Irrep              :   0
Energy             :  -767.0477391770973554 Eh
Relativity type    :
Basis              : AO
                                X                 Y                 Z
Electronic contribution:      8.700128876      -0.265732948      -0.000082313
Nuclear contribution   :    -10.286243236       0.825475434       0.000103156
                        -----------------------------------------
Total Dipole Moment    :     -1.586114360       0.559742486       0.000020843
                        -----------------------------------------
Magnitude (a.u.)       :      1.681984071
Magnitude (Debye)      :      4.275263748

Rotational constants in cm-1:             0.098196             0.051058             0.033592
Rotational constants in MHz :          2943.827276          1530.685992          1007.053707

                             ****ORCA TERMINATED NORMALLY****
TOTAL RUN TIME: 0 days 0 hours 2 minutes 35 seconds 64 msec
