                         Program Version 6.0.0  -   RELEASE  -
|  1> ! pbe def2-sv(p) def2/J RI DEFGRID1 loosescf d4 GCP(DFT/SV(P)) printgap
|  2> %output
|  3>     printlevel normal
|  4> end
|  5> * xyz 0 1
|  6> C -2.4120310508 -0.1022601896 -2.14241e-05
|  7> C -1.8290500351 -1.3573829805 0.0001219499
|  8> C -0.4492459924 -1.4755119422 1.85258e-05
|  9> C 0.3346590856 -0.3378544267 5.06121e-05
| 10> C -0.2368470412 0.9357533182 5.12237e-05
| 11> C -1.6244503704 1.034649066 -0.0001065202
| 12> O 0.5763674079 2.0179009477 7.52626e-05
| 13> Cl 2.0715018036 -0.4738047835 -7.17636e-05
| 14> H -3.4857993988 -0.0036043346 0.0001163622
| 15> H -2.4403231279 -2.2448040259 -1.13595e-05
| 16> H 0.025536951 -2.4428013056 -0.0001169904
| 17> H -2.0834290442 2.0117935893 -8.78485e-05
| 18> H 0.0549472505 2.8360002601 6.65427e-05
| 19> *
| 20>
| 21>                          ****END OF INPUT****

CARTESIAN COORDINATES (ANGSTROEM)
---------------------------------
  C     -2.412031   -0.102260   -0.000021
  C     -1.829050   -1.357383    0.000122
  C     -0.449246   -1.475512    0.000019
  C      0.334659   -0.337854    0.000051
  C     -0.236847    0.935753    0.000051
  C     -1.624450    1.034649   -0.000107
  O      0.576367    2.017901    0.000075
  Cl     2.071502   -0.473805   -0.000072
  H     -3.485799   -0.003604    0.000116
  H     -2.440323   -2.244804   -0.000011
  H      0.025537   -2.442801   -0.000117
  H     -2.083429    2.011794   -0.000088
  H      0.054947    2.836000    0.000067

 Total Charge           Charge          ....    0
 Multiplicity           Mult            ....    1
 Number of Electrons    NEL             ....   66
 Basis Dimension        Dim             ....  126

ORBITAL ENERGIES
----------------

  NO   OCC          E(Eh)            E(eV)
   0   2.0000    -100.632274     -2738.3434
   1   2.0000     -18.792886      -511.3804
   2   2.0000      -9.965438      -271.1733
   3   2.0000      -9.944913      -270.6148
   4   2.0000      -9.902712      -269.4665
   5   2.0000      -9.902626      -269.4641
   6   2.0000      -9.901265      -269.4271
   7   2.0000      -9.896011      -269.2841
   8   2.0000      -9.167780      -249.4680
   9   2.0000      -6.999339      -190.4617
  10   2.0000      -6.987798      -190.1477
  11   2.0000      -6.987037      -190.1269
  12   2.0000      -0.976249       -26.5651
  13   2.0000      -0.804755       -21.8985
  14   2.0000      -0.757624       -20.6160
  15   2.0000      -0.677129       -18.4256
  16   2.0000      -0.659502       -17.9460
  17   2.0000      -0.579515       -15.7694
  18   2.0000      -0.540319       -14.7028
  19   2.0000      -0.506044       -13.7702
  20   2.0000      -0.451343       -12.2817
  21   2.0000      -0.434045       -11.8110
  22   2.0000      -0.402633       -10.9562
  23   2.0000      -0.388020       -10.5586
  24   2.0000      -0.382795       -10.4164
  25   2.0000      -0.352289        -9.5863
  26   2.0000      -0.331428        -9.0186
  27   2.0000      -0.312779        -8.5111
  28   2.0000      -0.308769        -8.4020
  29   2.0000      -0.291401        -7.9294
  30   2.0000      -0.258653        -7.0383
  31   2.0000      -0.225720        -6.1421
  32   2.0000      -0.199427        -5.4267
  33   0.0000      -0.042850        -1.1660
  34   0.0000      -0.027801        -0.7565
  35   0.0000       0.009877         0.2688
  36   0.0000       0.015711         0.4275
  37   0.0000       0.063800         1.7361

MULLIKEN ATOMIC CHARGES
-----------------------
   0 C :   -0.035532
   1 C :   -0.059740
   2 C :   -0.095867
   3 C :    0.034859
   4 C :    0.213186
   5 C :   -0.191453
   6 O :   -0.312531
   7 Cl:   -0.068868
   8 H :    0.055926
   9 H :    0.056090
  10 H :    0.048658
  11 H :    0.032764
  12 H :    0.322508
Sum of atomic charges:   -0.0000000

LOEWDIN ATOMIC CHARGES
----------------------
   0 C :   -0.120955
   1 C :   -0.141318
   2 C :   -0.132235
   3 C :   -0.154191
   4 C :    0.003251
   5 C :   -0.171079
   6 O :   -0.221906
   7 Cl:    0.127362
   8 H :    0.126503
   9 H :    0.126678
  10 H :    0.132134
  11 H :    0.123536
  12 H :    0.302219

  Mayer bond orders larger than 0.100000
B(  0-C ,  1-C ) :   1.3686 B(  0-C ,  5-C ) :   1.3587 B(  0-C ,  8-H ) :   0.9643
B(  1-C ,  2-C ) :   1.3451 B(  1-C ,  9-H ) :   0.9653 B(  2-C ,  3-C ) :   1.4394
B(  2-C , 10-H ) :   0.9667 B(  3-C ,  4-C ) :   1.3771 B(  3-C ,  7-Cl) :   1.0075
B(  4-C ,  5-C ) :   1.3159 B(  4-C ,  6-O ) :   1.2505 B(  5-C , 11-H ) :   0.9597
B(  6-O , 12-H ) :   0.8378

Dispersion correction           -0.014725009
FINAL SINGLE POINT ENERGY      -766.083698816231

DIPOLE MOMENT
-------------

Method             : SCF
Type of density    : Electron Density
Multiplicity       :   1
Irrep              :   0
Energy             :  -766.1201336078497661 Eh
Relativity type    :
Basis              : AO
                                X                 Y                 Z
Electronic contribution:      9.349397835      -0.287096494      -0.000082050
Nuclear contribution   :    -10.210667117       0.812722144       0.000066200
                        -----------------------------------------
Total Dipole Moment    :     -0.861269282       0.525625650      -0.000015850
                        -----------------------------------------
Magnitude (a.u.)       :      1.008993112
Magnitude (Debye)      :      2.564656674

Rotational constants in cm-1:             0.099444             0.051664             0.034000
Rotational constants in MHz :          2981.260011          1548.836635          1019.290557

                             ****ORCA TERMINATED NORMALLY****
TOTAL RUN TIME: 0 days 0 hours 0 minutes 9 seconds 811 msec
