                         Program Version 6.0.0  -   RELEASE  -
|  1> ! pbe def2-sv(p) def2/J RI DEFGRID1 loosescf d4 GCP(DFT/SV(P)) printgap
|  2> %output
|  3>     printlevel normal
|  4> end
|  5> * xyz 0 1
|  6> C -2.4152752005 -0.0792903961 7.8819e-06
|  7> C -1.8415237909 -1.3402231586 1.73474e-05
|  8> C -0.4635201729 -1.4689848999 0.0001008299
|  9> C 0.3267854683 -0.3351059892 1.44322e-05
| 10> C -0.2322116869 0.9426275442 4.26231e-05
| 11> C -1.6213762942 1.0506558379 -8.9649e-06
| 12> O 0.5081540092 2.0703408157 2.69809e-05
| 13> Cl 2.0730491099 -0.4962033769 -3.14254e-05
| 14> H -3.4882638492 0.0262390746 -0.0002683867
| 15> H -2.4592782342 -2.223181533 -0.0004483077
| 16> H -0.0001806088 -2.4426502291 -0.0001576641
| 17> H -2.0487527425 2.0400670469 -0.0005280336
| 18> H 1.4551049744 1.8501836388 4.2731e-06
| 19> *
| 20>
| 21>                          ****END OF INPUT****

CARTESIAN COORDINATES (ANGSTROEM)
---------------------------------
  C     -2.415275   -0.079290    0.000008
  C     -1.841524   -1.340223    0.000017
  C     -0.463520   -1.468985    0.000101
  C      0.326785   -0.335106    0.000014
  C     -0.232212    0.942628    0.000043
  C     -1.621376    1.050656   -0.000009
  O      0.508154    2.070341    0.000027
  Cl     2.073049   -0.496203   -0.000031
  H     -3.488264    0.026239   -0.000268
  H     -2.459278   -2.223182   -0.000448
  H     -0.000181   -2.442650   -0.000158
  H     -2.048753    2.040067   -0.000528
  H      1.455105    1.850184    0.000004

 Total Charge           Charge          ....    0
 Multiplicity           Mult            ....    1
 Number of Electrons    NEL             ....   66
 Basis Dimension        Dim             ....  126

ORBITAL ENERGIES
----------------

  NO   OCC          E(Eh)            E(eV)
   0   2.0000    -100.655766     -2738.9827
   1   2.0000     -18.788485      -511.2607
   2   2.0000      -9.965993      -271.1884
   3   2.0000      -9.950819      -270.7755
   4   2.0000      -9.906503      -269.5697
   5   2.0000      -9.901199      -269.4253
   6   2.0000      -9.897515      -269.3251
   7   2.0000      -9.897446      -269.3232
   8   2.0000      -9.190910      -250.0974
   9   2.0000      -7.022056      -191.0798
  10   2.0000      -7.011000      -190.7790
  11   2.0000      -7.010601      -190.7682
  12   2.0000      -0.974792       -26.5255
  13   2.0000      -0.813118       -22.1261
  14   2.0000      -0.766310       -20.8524
  15   2.0000      -0.679605       -18.4930
  16   2.0000      -0.662000       -18.0139
  17   2.0000      -0.566308       -15.4100
  18   2.0000      -0.556323       -15.1383
  19   2.0000      -0.503122       -13.6906
  20   2.0000      -0.459250       -12.4968
  21   2.0000      -0.429879       -11.6976
  22   2.0000      -0.404561       -11.0087
  23   2.0000      -0.390662       -10.6304
  24   2.0000      -0.385044       -10.4776
  25   2.0000      -0.348456        -9.4820
  26   2.0000      -0.336383        -9.1535
  27   2.0000      -0.318013        -8.6536
  28   2.0000      -0.308598        -8.3974
  29   2.0000      -0.299438        -8.1481
  30   2.0000      -0.286470        -7.7952
  31   2.0000      -0.229143        -6.2353
  32   2.0000      -0.202139        -5.5005
  33   0.0000      -0.044259        -1.2044
  34   0.0000      -0.028570        -0.7774
  35   0.0000      -0.002234        -0.0608
  36   0.0000       0.041654         1.1335
  37   0.0000       0.058974         1.6048

MULLIKEN ATOMIC CHARGES
-----------------------
   0 C :   -0.029212
   1 C :   -0.060940
   2 C :   -0.094347
   3 C :    0.030400
   4 C :    0.189539
   5 C :   -0.153376
   6 O :   -0.314674
   7 Cl:   -0.095993
   8 H :    0.058955
   9 H :    0.056798
  10 H :    0.049140
  11 H :    0.053865
  12 H :    0.309844
Sum of atomic charges:   -0.0000000

LOEWDIN ATOMIC CHARGES
----------------------
   0 C :   -0.116925
   1 C :   -0.142025
   2 C :   -0.133948
   3 C :   -0.169216
   4 C :    0.005301
   5 C :   -0.142207
   6 O :   -0.225565
   7 Cl:    0.123301
   8 H :    0.127812
   9 H :    0.126934
  10 H :    0.131799
  11 H :    0.135308
  12 H :    0.279432

  Mayer bond orders larger than 0.100000
B(  0-C ,  1-C ) :   1.3506 B(  0-C ,  5-C ) :   1.3723 B(  0-C ,  8-H ) :   0.9683
B(  1-C ,  2-C ) :   1.3596 B(  1-C ,  9-H ) :   0.9646 B(  2-C ,  3-C ) :   1.4064
B(  2-C , 10-H ) :   0.9653 B(  3-C ,  4-C ) :   1.3196 B(  3-C ,  7-Cl) :   0.9482
B(  4-C ,  5-C ) :   1.3585 B(  4-C ,  6-O ) :   1.2679 B(  5-C , 11-H ) :   0.9626
B(  6-O , 12-H ) :   0.8070

Dispersion correction           -0.014742472
FINAL SINGLE POINT ENERGY      -766.088745602249

DIPOLE MOMENT
-------------

Method             : SCF
Type of density    : Electron Density
Multiplicity       :   1
Irrep              :   0
Energy             :  -766.1263339436513888 Eh
Relativity type    :
Basis              : AO
                                X                 Y                 Z
Electronic contribution:      8.869527016      -0.174430191       0.000921762
Nuclear contribution   :     -8.911850906      -0.006355833      -0.001269103
                        -----------------------------------------
Total Dipole Moment    :     -0.042323889      -0.180786024      -0.000347340
                        -----------------------------------------
Magnitude (a.u.)       :      0.185674496
Magnitude (Debye)      :      0.471947063

Rotational constants in cm-1:             0.099869             0.051379             0.033926
Rotational constants in MHz :          2994.010855          1540.305242          1017.064212

                             ****ORCA TERMINATED NORMALLY****
TOTAL RUN TIME: 0 days 0 hours 0 minutes 9 seconds 779 msec
