                         Program Version 6.0.0  -   RELEASE  -
|  1> ! r2scan-3c def2/J RI DEFGRID2 scfconv6 printgap
|  2> %output
|  3>     printlevel normal
|  4> end
|  5> * xyz 0 1
|  6> C -2.4120310508 -0.1022601896 -2.14241e-05
|  7> C -1.8290500351 -1.3573829805 0.0001219499
|  8> C -0.4492459924 -1.4755119422 1.85258e-05
|  9> C 0.3346590856 -0.3378544267 5.06121e-05
| 10> C -0.2368470412 0.9357533182 5.12237e-05
| 11> C -1.6244503704 1.034649066 -0.0001065202
| 12> O 0.5763674079 2.0179009477 7.52626e-05
| 13> Cl 2.0715018036 -0.4738047835 -7.17636e-05
| 14> H -3.4857993988 -0.0036043346 0.0001163622
| 15> H -2.4403231279 -2.2448040259 -1.13595e-05
| 16> H 0.025536951 -2.4428013056 -0.0001169904
| 17> H -2.0834290442 2.0117935893 -8.78485e-05
| 18> H 0.0549472505 2.8360002601 6.65427e-05
| 19> *
| 20>
| 21>                          ****END OF INPUT****

CARTESIAN COORDINATES (ANGSTROEM)
---------------------------------
  C     -2.412031   -0.102260   -0.000021
  C     -1.829050   -1.357383    0.000122
  C     -0.449246   -1.475512    0.000019
  C      0.334659   -0.337854    0.000051
  C     -0.236847    0.935753    0.000051
  C     -1.624450    1.034649   -0.000107
  O      0.576367    2.017901    0.000075
  Cl     2.071502   -0.473805   -0.000072
  H     -3.485799   -0.003604    0.000116
  H     -2.440323   -2.244804   -0.000011
  H      0.025537   -2.442801   -0.000117
  H     -2.083429    2.011794   -0.000088
  H      0.054947    2.836000    0.000067

 Total Charge           Charge          ....    0
 Multiplicity           Mult            ....    1
 Number of Electrons    NEL             ....   66
 Basis Dimension        Dim             ....  190

ORBITAL ENERGIES
----------------

  NO   OCC          E(Eh)            E(eV)
   0   2.0000    -101.214845     -2754.1960
   1   2.0000     -18.999010      -516.9893
   2   2.0000     -10.114525      -275.2302
   3   2.0000     -10.097994      -274.7804
   4   2.0000     -10.049727      -273.4670
   5   2.0000     -10.049236      -273.4536
   6   2.0000     -10.047000      -273.3928
   7   2.0000     -10.041152      -273.2336
   8   2.0000      -9.370460      -254.9832
   9   2.0000      -7.116878      -193.6601
  10   2.0000      -7.106768      -193.3850
  11   2.0000      -7.106077      -193.3662
  12   2.0000      -1.045047       -28.4372
  13   2.0000      -0.857265       -23.3274
  14   2.0000      -0.805788       -21.9266
  15   2.0000      -0.726852       -19.7786
  16   2.0000      -0.705858       -19.2074
  17   2.0000      -0.613333       -16.6896
  18   2.0000      -0.575964       -15.6728
  19   2.0000      -0.531369       -14.4593
  20   2.0000      -0.476331       -12.9616
  21   2.0000      -0.457555       -12.4507
  22   2.0000      -0.424805       -11.5595
  23   2.0000      -0.407735       -11.0950
  24   2.0000      -0.404616       -11.0101
  25   2.0000      -0.375721       -10.2239
  26   2.0000      -0.348543        -9.4843
  27   2.0000      -0.334121        -9.0919
  28   2.0000      -0.327179        -8.9030
  29   2.0000      -0.309880        -8.4323
  30   2.0000      -0.279856        -7.6153
  31   2.0000      -0.238794        -6.4979
  32   2.0000      -0.213562        -5.8113
  33   0.0000      -0.045218        -1.2304
  34   0.0000      -0.028502        -0.7756
  35   0.0000       0.009469         0.2577
  36   0.0000       0.049179         1.3382
  37   0.0000       0.099808         2.7159

MULLIKEN ATOMIC CHARGES
-----------------------
   0 C :   -0.128915
   1 C :   -0.167308
   2 C :   -0.180418
   3 C :    0.016000
   4 C :    0.381044
   5 C :   -0.305142
   6 O :   -0.400132
   7 Cl:   -0.136641
   8 H :    0.150012
   9 H :    0.151314
  10 H :    0.163549
  11 H :    0.139821
  12 H :    0.316815
Sum of atomic charges:   -0.0000000

LOEWDIN ATOMIC CHARGES
----------------------
   0 C :   -0.155767
   1 C :   -0.179477
   2 C :   -0.161242
   3 C :   -0.146058
   4 C :    0.169377
   5 C :   -0.164688
   6 O :   -0.497122
   7 Cl:    0.155003
   8 H :    0.169864
   9 H :    0.170142
  10 H :    0.179498
  11 H :    0.171107
  12 H :    0.289363

  Mayer bond orders larger than 0.100000
B(  0-C ,  1-C ) :   1.4304 B(  0-C ,  5-C ) :   1.4064 B(  0-C ,  8-H ) :   0.9392
B(  1-C ,  2-C ) :   1.3880 B(  1-C ,  9-H ) :   0.9471 B(  2-C ,  3-C ) :   1.3618
B(  2-C , 10-H ) :   0.9407 B(  3-C ,  4-C ) :   1.4016 B(  3-C ,  7-Cl) :   0.9876
B(  4-C ,  5-C ) :   1.2969 B(  4-C ,  6-O ) :   0.9880 B(  5-C , 11-H ) :   0.9447
B(  6-O , 12-H ) :   0.8784

Dispersion correction           -0.004532020
FINAL SINGLE POINT ENERGY      -766.978375068126

DIPOLE MOMENT
-------------

Method             : SCF
Type of density    : Electron Density
Multiplicity       :   1
Irrep              :   0
Energy             :  -766.9790892715047903 Eh
Relativity type    :
Basis              : AO
                                X                 Y                 Z
Electronic contribution:      9.198333346      -0.360567656      -0.000085649
Nuclear contribution   :    -10.210667117       0.812722144       0.000066200
                        -----------------------------------------
Total Dipole Moment    :     -1.012333771       0.452154488      -0.000019449
                        -----------------------------------------
Magnitude (a.u.)       :      1.108721491
Magnitude (Debye)      :      2.818146068

Rotational constants in cm-1:             0.099444             0.051664             0.034000
Rotational constants in MHz :          2981.260011          1548.836635          1019.290557

                             ****ORCA TERMINATED NORMALLY****
TOTAL RUN TIME: 0 days 0 hours 0 minutes 23 seconds 993 msec
