                         Program Version 6.0.0  -   RELEASE  -
|  1> ! r2scan-3c def2/J RI DEFGRID2 scfconv6 printgap
|  2> %output
|  3>     printlevel normal
|  4> end
|  5> %cpcm
|  6>     smd true
|  7>     smdsolvent "water"
|  8> end
|  9> * xyz 0 1
| 10> C -2.4120310508 -0.1022601896 -2.14241e-05
| 11> C -1.8290500351 -1.3573829805 0.0001219499
| 12> C -0.4492459924 -1.4755119422 1.85258e-05
| 13> C 0.3346590856 -0.3378544267 5.06121e-05
| 14> C -0.2368470412 0.9357533182 5.12237e-05
| 15> C -1.6244503704 1.034649066 -0.0001065202
| 16> O 0.5763674079 2.0179009477 7.52626e-05
| 17> Cl 2.0715018036 -0.4738047835 -7.17636e-05
| 18> H -3.4857993988 -0.0036043346 0.0001163622
| 19> H -2.4403231279 -2.2448040259 -1.13595e-05
| 20> H 0.025536951 -2.4428013056 -0.0001169904
| 21> H -2.0834290442 2.0117935893 -8.78485e-05
| 22> H 0.0549472505 2.8360002601 6.65427e-05
| 23> *
| 24>
| 25>                          ****END OF INPUT****

CARTESIAN COORDINATES (ANGSTROEM)
---------------------------------
  C     -2.412031   -0.102260   -0.000021
  C     -1.829050   -1.357383    0.000122
  C     -0.449246   -1.475512    0.000019
  C      0.334659   -0.337854    0.000051
  C     -0.236847    0.935753    0.000051
  C     -1.624450    1.034649   -0.000107
  O      0.576367    2.017901    0.000075
  Cl     2.071502   -0.473805   -0.000072
  H     -3.485799   -0.003604    0.000116
  H     -2.440323   -2.244804   -0.000011
  H      0.025537   -2.442801   -0.000117
  H     -2.083429    2.011794   -0.000088
  H      0.054947    2.836000    0.000067

 Total Charge           Charge          ....    0
 Multiplicity           Mult            ....    1
 Number of Electrons    NEL             ....   66
 Basis Dimension        Dim             ....  190

ORBITAL ENERGIES
----------------

  NO   OCC          E(Eh)            E(eV)
   0   2.0000    -101.222803     -2754.4125
   1   2.0000     -18.990446      -516.7563
   2   2.0000     -10.110606      -275.1236
   3   2.0000     -10.096369      -274.7362
   4   2.0000     -10.045617      -273.3551
   5   2.0000     -10.040452      -273.2146
   6   2.0000     -10.039763      -273.1958
   7   2.0000     -10.035046      -273.0675
   8   2.0000      -9.378618      -255.2052
   9   2.0000      -7.124804      -193.8758
  10   2.0000      -7.115000      -193.6090
  11   2.0000      -7.114359      -193.5916
  12   2.0000      -1.036825       -28.2134
  13   2.0000      -0.858178       -23.3522
  14   2.0000      -0.806313       -21.9409
  15   2.0000      -0.721004       -19.6195
  16   2.0000      -0.703474       -19.1425
  17   2.0000      -0.605540       -16.4776
  18   2.0000      -0.570401       -15.5214
  19   2.0000      -0.522503       -14.2180
  20   2.0000      -0.470553       -12.8044
  21   2.0000      -0.452362       -12.3094
  22   2.0000      -0.418113       -11.3774
  23   2.0000      -0.403400       -10.9771
  24   2.0000      -0.402116       -10.9421
  25   2.0000      -0.371199       -10.1008
  26   2.0000      -0.340855        -9.2751
  27   2.0000      -0.334642        -9.1061
  28   2.0000      -0.320709        -8.7269
  29   2.0000      -0.312573        -8.5055
  30   2.0000      -0.287913        -7.8345
  31   2.0000      -0.237638        -6.4665
  32   2.0000      -0.212796        -5.7905
  33   0.0000      -0.042218        -1.1488
  34   0.0000      -0.025926        -0.7055
  35   0.0000       0.007075         0.1925
  36   0.0000       0.079916         2.1746
  37   0.0000       0.114014         3.1025

MULLIKEN ATOMIC CHARGES
-----------------------
   0 C :   -0.154192
   1 C :   -0.212207
   2 C :   -0.204023
   3 C :    0.012548
   4 C :    0.330249
   5 C :   -0.300473
   6 O :   -0.440581
   7 Cl:   -0.165858
   8 H :    0.185798
   9 H :    0.186300
  10 H :    0.194561
  11 H :    0.191526
  12 H :    0.376352
Sum of atomic charges:   -0.0000000

LOEWDIN ATOMIC CHARGES
----------------------
   0 C :   -0.161082
   1 C :   -0.188240
   2 C :   -0.170096
   3 C :   -0.162087
   4 C :    0.162952
   5 C :   -0.155751
   6 O :   -0.512241
   7 Cl:    0.130986
   8 H :    0.181802
   9 H :    0.181281
  10 H :    0.189232
  11 H :    0.191107
  12 H :    0.312135

  Mayer bond orders larger than 0.100000
B(  0-C ,  1-C ) :   1.3839 B(  0-C ,  5-C ) :   1.3625 B(  0-C ,  8-H ) :   0.9494
B(  1-C ,  2-C ) :   1.3770 B(  1-C ,  9-H ) :   0.9529 B(  2-C ,  3-C ) :   1.3199
B(  2-C , 10-H ) :   0.9434 B(  3-C ,  4-C ) :   1.3616 B(  3-C ,  7-Cl) :   0.9434
B(  4-C ,  5-C ) :   1.2991 B(  4-C ,  6-O ) :   1.0146 B(  5-C , 11-H ) :   0.9536
B(  6-O , 12-H ) :   0.8461

Dispersion correction           -0.004532020
FINAL SINGLE POINT ENERGY      -766.988689893637

DIPOLE MOMENT
-------------

Method             : SCF
Type of density    : Electron Density
Multiplicity       :   1
Irrep              :   0
Energy             :  -766.9894040970164042 Eh
Relativity type    :
Basis              : AO
                                X                 Y                 Z
Electronic contribution:      8.745894516      -0.157471873      -0.000099979
Nuclear contribution   :    -10.210667117       0.812722144       0.000066200
                        -----------------------------------------
Total Dipole Moment    :     -1.464772601       0.655250271      -0.000033780
                        -----------------------------------------
Magnitude (a.u.)       :      1.604653137
Magnitude (Debye)      :      4.078704135

Rotational constants in cm-1:             0.099444             0.051664             0.034000
Rotational constants in MHz :          2981.260011          1548.836635          1019.290557

                             ****ORCA TERMINATED NORMALLY****
TOTAL RUN TIME: 0 days 0 hours 0 minutes 31 seconds 168 msec
