                         Program Version 6.0.0  -   RELEASE  -
|  1> ! wb97x-v def2-tzvp def2/J RIJCOSX DEFGRID2 scfconv7 GCP(DFT/TZ) printgap
|  2> %output
|  3>     printlevel normal
|  4> end
|  5> * xyz 0 1
|  6> C -2.419097036260352 -0.07755586056133543 -0.00018965245913778737
|  7> C -1.846780342135505 -1.3483991260846726 -0.00015743779292246411
|  8> C -0.46211628905966473 -1.481682740494972 -6.521983663645468e-05
|  9> C 0.3318899480409741 -0.34266451527478275 -1.4769045235715475e-05
| 10> C -0.22871177190713776 0.9388366973645476 -5.621366837179319e-05
| 11> C -1.6189127881229013 1.0572308803290529 -0.00013927234042776287
| 12> O 0.5110639384125414 2.0874510404839146 -2.87478847956544e-05
| 13> Cl 2.0868826196934522 -0.49815551143347847 9.946929984600819e-05
| 14> H -3.498243147053145 0.033811407616143416 -0.0002616074640711382
| 15> H -2.469588594129455 -2.2359939076813733 -0.00020730371093593818
| 16> H 0.0022690939476222483 -2.4616027579226745 -4.0707367741641936e-05
| 17> H -2.052306630037507 2.052001366569013 -0.00017474500792541924
| 18> H 1.4563619906523366 1.8711971960076401 7.8279209673392e-06
| 19> *
| 20>
| 21>                          ****END OF INPUT****

CARTESIAN COORDINATES (ANGSTROEM)
---------------------------------
  C     -2.419097   -0.077556   -0.000190
  C     -1.846780   -1.348399   -0.000157
  C     -0.462116   -1.481683   -0.000065
  C      0.331890   -0.342665   -0.000015
  C     -0.228712    0.938837   -0.000056
  C     -1.618913    1.057231   -0.000139
  O      0.511064    2.087451   -0.000029
  Cl     2.086883   -0.498156    0.000099
  H     -3.498243    0.033811   -0.000262
  H     -2.469589   -2.235994   -0.000207
  H      0.002269   -2.461603   -0.000041
  H     -2.052307    2.052001   -0.000175
  H      1.456362    1.871197    0.000008

 Total Charge           Charge          ....    0
 Multiplicity           Mult            ....    1
 Number of Electrons    NEL             ....   66
 Basis Dimension        Dim             ....  284

ORBITAL ENERGIES
----------------

  NO   OCC          E(Eh)            E(eV)
   0   2.0000    -107.159171     -2915.9493
   1   2.0000     -21.713088      -590.8432
   2   2.0000     -12.132058      -330.1301
   3   2.0000     -12.119805      -329.7967
   4   2.0000     -12.072077      -328.4979
   5   2.0000     -12.066043      -328.3337
   6   2.0000     -12.060790      -328.1908
   7   2.0000     -12.059515      -328.1561
   8   2.0000     -11.312219      -307.8211
   9   2.0000      -9.103741      -247.7254
  10   2.0000      -9.101183      -247.6558
  11   2.0000      -9.101064      -247.6525
  12   2.0000      -1.729418       -47.0598
  13   2.0000      -1.442078       -39.2409
  14   2.0000      -1.386255       -37.7219
  15   2.0000      -1.298277       -35.3279
  16   2.0000      -1.280829       -34.8531
  17   2.0000      -1.167964       -31.7819
  18   2.0000      -1.135903       -30.9095
  19   2.0000      -1.078769       -29.3548
  20   2.0000      -1.017634       -27.6912
  21   2.0000      -0.971075       -26.4243
  22   2.0000      -0.959234       -26.1021
  23   2.0000      -0.958512       -26.0824
  24   2.0000      -0.924327       -25.1522
  25   2.0000      -0.901475       -24.5304
  26   2.0000      -0.853642       -23.2288
  27   2.0000      -0.835395       -22.7322
  28   2.0000      -0.834484       -22.7075
  29   2.0000      -0.806473       -21.9453
  30   2.0000      -0.775049       -21.0902
  31   2.0000      -0.659810       -17.9543
  32   2.0000      -0.651313       -17.7231
  33   0.0000      -0.281153        -7.6506
  34   0.0000      -0.266672        -7.2565
  35   0.0000      -0.257047        -6.9946
  36   0.0000      -0.146267        -3.9801
  37   0.0000      -0.088417        -2.4059

MULLIKEN ATOMIC CHARGES
-----------------------
   0 C :   -0.095447
   1 C :   -0.134386
   2 C :   -0.175963
   3 C :    0.112565
   4 C :    0.159701
   5 C :   -0.201748
   6 O :   -0.374780
   7 Cl:   -0.120331
   8 H :    0.124034
   9 H :    0.123142
  10 H :    0.138691
  11 H :    0.129563
  12 H :    0.314958
Sum of atomic charges:   -0.0000000

LOEWDIN ATOMIC CHARGES
----------------------
   0 C :   -0.132202
   1 C :   -0.151170
   2 C :   -0.140325
   3 C :   -0.402164
   4 C :   -0.271512
   5 C :   -0.113797
   6 O :    0.081531
   7 Cl:    0.364291
   8 H :    0.145239
   9 H :    0.143499
  10 H :    0.148637
  11 H :    0.151058
  12 H :    0.176915

  Mayer bond orders larger than 0.100000
B(  0-C ,  1-C ) :   1.4209 B(  0-C ,  5-C ) :   1.4513 B(  0-C ,  8-H ) :   0.9713
B(  1-C ,  2-C ) :   1.4362 B(  1-C ,  9-H ) :   0.9699 B(  2-C ,  3-C ) :   1.3723
B(  2-C , 10-H ) :   0.9584 B(  3-C ,  4-C ) :   1.2909 B(  3-C ,  7-Cl) :   0.9518
B(  4-C ,  5-C ) :   1.4061 B(  4-C ,  6-O ) :   1.2243 B(  5-C , 11-H ) :   0.9644
B(  6-O , 12-H ) :   0.8631

FINAL SINGLE POINT ENERGY      -767.035419123671

DIPOLE MOMENT
-------------

Method             : SCF
Type of density    : Electron Density
Multiplicity       :   1
Irrep              :   0
Energy             :  -767.0422373116712151 Eh
Relativity type    :
Basis              : AO
                                X                 Y                 Z
Electronic contribution:      8.700448294      -0.288433840       0.000598608
Nuclear contribution   :     -8.963851919       0.006663897      -0.000635394
                        -----------------------------------------
Total Dipole Moment    :     -0.263403626      -0.281769943      -0.000036787
                        -----------------------------------------
Magnitude (a.u.)       :      0.385714625
Magnitude (Debye)      :      0.980408662

Rotational constants in cm-1:             0.098504             0.050977             0.033592
Rotational constants in MHz :          2953.075624          1528.244069          1007.073946

                             ****ORCA TERMINATED NORMALLY****
TOTAL RUN TIME: 0 days 0 hours 2 minutes 19 seconds 197 msec
