                         Program Version 6.0.0  -   RELEASE  -
|  1> ! wb97x-v def2-tzvp def2/J RIJCOSX DEFGRID2 scfconv7 GCP(DFT/TZ) printgap
|  2> %output
|  3>     printlevel normal
|  4> end
|  5> %cpcm
|  6>     smd true
|  7>     smdsolvent "water"
|  8> end
|  9> * xyz 0 1
| 10> C -2.419097036260352 -0.07755586056133543 -0.00018965245913778737
| 11> C -1.846780342135505 -1.3483991260846726 -0.00015743779292246411
| 12> C -0.46211628905966473 -1.481682740494972 -6.521983663645468e-05
| 13> C 0.3318899480409741 -0.34266451527478275 -1.4769045235715475e-05
| 14> C -0.22871177190713776 0.9388366973645476 -5.621366837179319e-05
| 15> C -1.6189127881229013 1.0572308803290529 -0.00013927234042776287
| 16> O 0.5110639384125414 2.0874510404839146 -2.87478847956544e-05
| 17> Cl 2.0868826196934522 -0.49815551143347847 9.946929984600819e-05
| 18> H -3.498243147053145 0.033811407616143416 -0.0002616074640711382
| 19> H -2.469588594129455 -2.2359939076813733 -0.00020730371093593818
| 20> H 0.0022690939476222483 -2.4616027579226745 -4.0707367741641936e-05
| 21> H -2.052306630037507 2.052001366569013 -0.00017474500792541924
| 22> H 1.4563619906523366 1.8711971960076401 7.8279209673392e-06
| 23> *
| 24>
| 25>                          ****END OF INPUT****

CARTESIAN COORDINATES (ANGSTROEM)
---------------------------------
  C     -2.419097   -0.077556   -0.000190
  C     -1.846780   -1.348399   -0.000157
  C     -0.462116   -1.481683   -0.000065
  C      0.331890   -0.342665   -0.000015
  C     -0.228712    0.938837   -0.000056
  C     -1.618913    1.057231   -0.000139
  O      0.511064    2.087451   -0.000029
  Cl     2.086883   -0.498156    0.000099
  H     -3.498243    0.033811   -0.000262
  H     -2.469589   -2.235994   -0.000207
  H      0.002269   -2.461603   -0.000041
  H     -2.052307    2.052001   -0.000175
  H      1.456362    1.871197    0.000008

 Total Charge           Charge          ....    0
 Multiplicity           Mult            ....    1
 Number of Electrons    NEL             ....   66
 Basis Dimension        Dim             ....  284

ORBITAL ENERGIES
----------------

  NO   OCC          E(Eh)            E(eV)
   0   2.0000    -107.156950     -2915.8889
   1   2.0000     -21.712439      -590.8255
   2   2.0000     -12.129429      -330.0585
   3   2.0000     -12.116861      -329.7166
   4   2.0000     -12.065711      -328.3247
   5   2.0000     -12.059152      -328.1462
   6   2.0000     -12.055276      -328.0407
   7   2.0000     -12.052439      -327.9636
   8   2.0000     -11.310006      -307.7609
   9   2.0000      -9.101533      -247.6653
  10   2.0000      -9.098971      -247.5956
  11   2.0000      -9.098874      -247.5929
  12   2.0000      -1.728902       -47.0458
  13   2.0000      -1.439604       -39.1736
  14   2.0000      -1.382633       -37.6233
  15   2.0000      -1.294129       -35.2150
  16   2.0000      -1.276556       -34.7369
  17   2.0000      -1.164930       -31.6994
  18   2.0000      -1.131647       -30.7937
  19   2.0000      -1.074469       -29.2378
  20   2.0000      -1.016739       -27.6669
  21   2.0000      -0.966189       -26.2913
  22   2.0000      -0.960448       -26.1351
  23   2.0000      -0.955801       -26.0087
  24   2.0000      -0.917595       -24.9690
  25   2.0000      -0.894538       -24.3416
  26   2.0000      -0.845751       -23.0141
  27   2.0000      -0.832778       -22.6610
  28   2.0000      -0.828240       -22.5376
  29   2.0000      -0.803458       -21.8632
  30   2.0000      -0.772313       -21.0157
  31   2.0000      -0.656304       -17.8590
  32   2.0000      -0.648308       -17.6414
  33   0.0000      -0.278485        -7.5780
  34   0.0000      -0.263501        -7.1702
  35   0.0000      -0.252919        -6.8823
  36   0.0000      -0.142399        -3.8749
  37   0.0000      -0.084033        -2.2867

MULLIKEN ATOMIC CHARGES
-----------------------
   0 C :   -0.137998
   1 C :   -0.182829
   2 C :   -0.202492
   3 C :    0.095038
   4 C :    0.191800
   5 C :   -0.244172
   6 O :   -0.427982
   7 Cl:   -0.123670
   8 H :    0.167156
   9 H :    0.166965
  10 H :    0.176879
  11 H :    0.163639
  12 H :    0.357667
Sum of atomic charges:   -0.0000000

LOEWDIN ATOMIC CHARGES
----------------------
   0 C :   -0.135464
   1 C :   -0.154813
   2 C :   -0.141838
   3 C :   -0.408252
   4 C :   -0.279919
   5 C :   -0.121871
   6 O :    0.062462
   7 Cl:    0.359699
   8 H :    0.155784
   9 H :    0.153847
  10 H :    0.158871
  11 H :    0.159017
  12 H :    0.192477

  Mayer bond orders larger than 0.100000
B(  0-C ,  1-C ) :   1.4003 B(  0-C ,  5-C ) :   1.4381 B(  0-C ,  8-H ) :   0.9716
B(  1-C ,  2-C ) :   1.4225 B(  1-C ,  9-H ) :   0.9713 B(  2-C ,  3-C ) :   1.3440
B(  2-C , 10-H ) :   0.9592 B(  3-C ,  4-C ) :   1.2909 B(  3-C ,  7-Cl) :   0.9757
B(  4-C ,  5-C ) :   1.3744 B(  4-C ,  6-O ) :   1.1903 B(  5-C , 11-H ) :   0.9706
B(  6-O , 12-H ) :   0.8387

FINAL SINGLE POINT ENERGY      -767.040449361966

DIPOLE MOMENT
-------------

Method             : SCF
Type of density    : Electron Density
Multiplicity       :   1
Irrep              :   0
Energy             :  -767.0472675499664774 Eh
Relativity type    :
Basis              : AO
                                X                 Y                 Z
Electronic contribution:      8.599632417      -0.423395504       0.000584281
Nuclear contribution   :     -8.963851919       0.006663897      -0.000635394
                        -----------------------------------------
Total Dipole Moment    :     -0.364219502      -0.416731607      -0.000051113
                        -----------------------------------------
Magnitude (a.u.)       :      0.553462809
Magnitude (Debye)      :      1.406790660

Rotational constants in cm-1:             0.098504             0.050977             0.033592
Rotational constants in MHz :          2953.075624          1528.244069          1007.073946

                             ****ORCA TERMINATED NORMALLY****
TOTAL RUN TIME: 0 days 0 hours 2 minutes 35 seconds 552 msec
